148
Lattice="16.2580184937 0.0 0.0 0.0 18.0759601593 0.0 0.0 0.0 30.0" Properties=species:S:1:pos:R:3:forces:R:3 energy=-1479.6328125 pbc="T T T"
Pt       6.81249570       9.18554582      14.35690661      -0.02961230      -0.04970595       0.00194532
O        2.73136587       9.11050407       8.41223053      -0.00014814       0.00983067       0.00606672
O        2.69855572      18.20825606       8.41379517      -0.00187141       0.00793989      -0.01266002
O        8.12734193       9.21017810       8.59574524       0.00274965      -0.00931028      -0.01047882
O        8.13931630      18.17771489       8.42091425      -0.00499289       0.01075570      -0.02194476
O       13.56441774       9.11991740       8.41788534      -0.01350478       0.00800138       0.00410590
O       13.54454199      18.18303046       8.41853366       0.01264456      -0.01048823      -0.00485066
O        1.32852569       2.36908754       8.41263418       0.01176171       0.01489673       0.01404604
O        1.40811445      11.40467939       8.36582979       0.01564374      -0.00974520       0.01254153
O        6.74453372       2.33383442       8.43517879       0.02393582      -0.00343877       0.01081317
O        6.80534297      11.48309127       8.48937997      -0.02322075       0.00416998       0.02467285
O       12.17168010       2.36711735       8.42874233      -0.00227346       0.00494106       0.01043282
O       12.26042476      11.39881072       8.36804956      -0.00848499       0.00014573       0.01649366
O        4.04021787       2.41010364       8.42981790      -0.00099739       0.01423080       0.00533185
O        4.09990789      11.37060509       8.35647599      -0.00502528      -0.00220346       0.00378019
O        9.45632659       2.37222101       8.42780565       0.00154391       0.00141726      -0.00383525
O        9.53677377      11.42420117       8.48409836      -0.00402851      -0.01120330      -0.00599268
O       14.87736987       2.37739145       8.40872534      -0.00516000      -0.01225462       0.00272177
O       14.96430524      11.37246800       8.37586553      -0.03113055      -0.00532326       0.00447007
O        5.48055557       4.63468837       8.47174938       0.00990326      -0.00381302       0.00311553
O        5.37992708      13.69495172       8.36294941       0.00574557       0.00396185      -0.01335053
O       10.79461550       4.63128125       8.45225095      -0.00373568      -0.02587011       0.00573093
O       10.88328535      13.66452645       8.36936260       0.00550437      -0.00546824       0.01538590
O       16.24730321       4.62580571       8.43368411      -0.00327912       0.01038692       0.01272836
O       16.27736968      13.66392793       8.38000718      -0.00309132      -0.02218402      -0.00030014
O        1.35741949       6.87069994       8.42860295       0.01888968      -0.01349826      -0.00950348
O        1.33869049      15.94017354       8.38369813       0.02863619       0.01615986      -0.01340289
O        6.79613568       6.93828138       8.60988069       0.02762832      -0.00230569      -0.00390831
O        6.77253079      15.93145336       8.39119094      -0.00302065      -0.00578570       0.01415484
O       12.17479664       6.87334166       8.43922756       0.03533578       0.01472941      -0.01069631
O       12.18436347      15.93704290       8.40756067      -0.00783790      -0.01363306       0.01696516
O        4.08691711       6.85475934       8.45164061      -0.01206009       0.02442316      -0.00396980
O        4.05434002      15.95894009       8.38036568      -0.02191828      -0.00491636       0.03480901
O        9.47877235       6.93479119       8.59713952      -0.01248373      -0.00840497      -0.01921349
O        9.48389715      15.90567806       8.40615311      -0.01010169      -0.00821351      -0.01733220
O       14.89285231       6.86802570       8.43075700       0.00844624      -0.00512511       0.00508187
O       14.89576761      15.91788231       8.39171242      -0.01147659      -0.01589092      -0.00976224
O        2.71204322       9.12092438      12.65513679       0.01414678       0.02799810       0.02586335
O        2.59585651      18.18865198      12.65659462      -0.02584532      -0.00875784       0.00538941
O        8.36230238       8.88064575      13.18338122      -0.06538975       0.00761592      -0.03372374
O        8.15023517      18.15592288      12.68076926       0.00727788       0.01182685      -0.00794943
O       13.51987757       9.14456474      12.66702857      -0.02091178       0.00678327       0.01047413
O       13.59794927      18.12098236      12.66853497      -0.00893649      -0.00322336      -0.00414523
O        1.33341713       2.40075667      12.68928474      -0.00774390       0.00587249       0.01048908
O        1.41877464      11.41456924      12.65180021       0.01057758      -0.01767109       0.01615452
O        6.75183527       2.32212684      12.70606121       0.02063823      -0.01580638      -0.00324191
O        6.69915676      11.55089341      12.52085149       0.00631677       0.08049332       0.00007549
O       12.16331030       2.21350310      12.68859845       0.00292643      -0.01742269       0.00088143
O       12.49608423      11.59902679      12.69612567       0.00679857      -0.03460968       0.00692357
O        4.04381014       2.30696107      12.69994270      -0.01673644      -0.00950593       0.00897827
O        4.02280348      11.42347798      12.68532959       0.00152905      -0.02399548       0.02574698
O        9.45881305       2.36436367      12.70338468       0.00987792       0.00042691       0.00225056
O        9.94749951      10.99618423      12.52438858      -0.01226455       0.01171413       0.00772810
O       14.87859671       2.34909218      12.68915019       0.01228065      -0.00777765       0.01198019
O       15.07663349      11.26406853      12.64981355       0.00409603      -0.00018121      -0.00269138
O       -0.04909183       4.62313252      12.68132652       0.00311275       0.02189952      -0.00478261
O       -0.00409556      13.62804058      12.64064569       0.03020733       0.00405308      -0.00879653
O        5.35969119       4.56404752      12.74341548      -0.02506807      -0.00901653       0.01444400
O        5.28155724      13.75064820      12.67586665      -0.01040948       0.00476207      -0.00132001
O       11.00528508       4.51760169      12.73130203      -0.01783650       0.00406005       0.00238249
O       10.80619605      13.61173110      12.69176327      -0.01622292       0.00077775       0.00986565
O        1.35437987       6.86493193      12.70057800       0.02406640      -0.04835675       0.00242633
O        1.35303043      15.87752234      12.65887081      -0.01126476       0.03205814      -0.00813065
O        6.80600596       6.72122654      12.74530919       0.02258396       0.02851390      -0.00757660
O        6.77001163      15.92419061      12.65528930      -0.02945842       0.00280375       0.01007977
O       12.22184756       6.85708556      12.74706211      -0.00146331      -0.00962395      -0.00370741
O       12.18272545      15.87820017      12.66322735       0.00468160      -0.00787823       0.00002278
O        4.05366400       6.85697216      12.74395706       0.01410920       0.00128623       0.00293932
O        4.06253108      16.03224110      12.64684682       0.01779389       0.02860353       0.02732655
O        9.50803963       6.60778222      12.75145626      -0.00478439       0.05718124      -0.02676240
O        9.47412258      15.87380858      12.67229288      -0.00645986       0.02621607      -0.00014033
O       14.91159743       6.90572316      12.70252950       0.01243433       0.01844424       0.00223130
O       14.89519800      15.86116414      12.67015393       0.00001997      -0.01026464      -0.00456452
O        5.40348750       3.04530495      10.57959683      -0.00455161       0.00640061      -0.00883601
O        5.25748538      12.23072809      10.52003518       0.01347225       0.00571598      -0.04217399
O       10.81892724       3.03028499      10.56727740       0.00354408      -0.00156901      -0.00418666
O       11.07140469      12.18360626      10.52746895      -0.03113538       0.00523147      -0.00717562
O       -0.03419546       3.05843106      10.55171909      -0.00393436       0.00331098       0.00588438
O        0.06995633      12.10591534      10.49851544       0.00477378      -0.00934272       0.01623458
O       -0.00681495       6.19118138      10.56431977       0.00196550      -0.00832038      -0.01613158
O       -0.00613993      15.20914790      10.52225762       0.00471811      -0.01874265      -0.02041156
O        5.37931599       6.13322997      10.62957343       0.01481743      -0.00001812       0.00994553
O        5.40000770      15.24939374      10.51413400       0.00552765       0.02914307       0.00099922
O       10.92244867       6.10419745      10.61263029      -0.00825179       0.00411380       0.02847567
O       10.82666284      15.17585111      10.53777768       0.01395839      -0.01064108      -0.02023338
O        2.68032311       1.68857800      10.55024149      -0.00010055       0.02032847      -0.02063374
O        2.74895113      10.67189923      10.51284704       0.01312708      -0.00742549       0.00269639
O        8.11503169       1.65011334      10.56534819      -0.01559278       0.00047496      -0.01988946
O        8.19967933      10.88793995      10.65866097       0.03740525      -0.02044391       0.00180697
O       13.55338799       1.64277430      10.54917159      -0.00630198      -0.01586373      -0.00277644
O       13.63350708      10.67437804      10.52194983      -0.01234407       0.02121863      -0.00967944
O        2.71669751       7.54849604      10.56254929       0.03091820      -0.01827667       0.02168749
O        2.67622831      16.63212140      10.51875399      -0.01008015       0.01086819       0.01123138
O        8.18072862       7.71983046      10.75346138      -0.00040866      -0.01026503       0.02998953
O        8.13786401      16.61790162      10.53466451      -0.00032987      -0.01005445       0.01897875
O       13.52601525       7.56345787      10.56717212       0.00914128       0.00283808      -0.00739874
O       13.55167507      16.59441446      10.53629417       0.00399578      -0.02350418      -0.00474191
Si       5.41280170       3.09510796       8.96714407       0.01707713      -0.01483413      -0.00875795
Si       5.39528357      12.17738517       8.91569609      -0.02032883       0.00742427      -0.03119814
Si      10.81405557       3.09116916       8.95459449      -0.00731613      -0.02609410       0.00264942
Si      10.92779288      12.14784378       8.92457256      -0.00768298      -0.00424634      -0.00815282
Si      16.23371872       3.09387945       8.93948976      -0.00364294       0.00314263       0.00015830
Si      16.30801166      12.12928485       8.88755636      -0.00732605      -0.03686866       0.00659229
Si       5.43574571       6.15221705       9.02273742      -0.00048930       0.01862296      -0.01078871
Si       5.40400157      15.22069681       8.90048224      -0.01393838      -0.00027951       0.00119346
Si      10.83833440       6.14840515       9.00774026       0.02151548      -0.00298240       0.00613484
Si      10.84369255      15.18280805       8.92380547      -0.01090111      -0.00445747      -0.01509544
Si      16.25380215       6.15287785       8.95254423       0.01046335       0.01687522      -0.01169492
Si      16.25337823      15.19254413       8.90985487       0.02182660       0.00621521      -0.03239740
Si       2.69026021       1.65954490       8.93860238       0.00707874       0.00439611      -0.01888879
Si       2.74493197      10.65178542       8.89909540       0.01210071      -0.00311774       0.00157637
Si       8.11207657       1.62576179       8.95213105       0.02005695       0.00767711      -0.01103978
Si       8.15675094      10.76449047       9.04637705      -0.01111972      -0.00126437      -0.00343712
Si      13.53300930       1.63634298       8.93727514      -0.01223520      -0.00960635      -0.00594459
Si      13.60448506      10.65884888       8.90862496      -0.02408654      -0.00558794       0.00045309
Si       2.72077668       7.58564971       8.94939890      -0.00584075       0.01892199       0.01447782
Si       2.69208352      16.66994810       8.90745206       0.00085061       0.02806469       0.01925206
Si       8.14123879       7.68574161       9.12681046       0.00194997       0.00321927       0.06149278
Si       8.13325600      16.64330806       8.92340254       0.00104768       0.01064127       0.01625174
Si      13.53850092       7.59622794       8.95284989       0.03554183       0.01618496      -0.00839661
Si      13.54654922      16.64882265       8.92544200      -0.01052113      -0.01008981      -0.00159892
Si      -0.03551675       3.09355829      12.16339751      -0.00228244       0.02250382       0.00648416
Si       0.07471163      12.11042104      12.10865579       0.01707838      -0.00582874       0.01636115
Si       5.39316802       3.04760094      12.19171859       0.00403885      -0.02399405      -0.00852489
Si       5.29260740      12.24036853      12.12994396      -0.05697215       0.02390197      -0.05424097
Si      10.85241667       3.01206963      12.17916326       0.01123435      -0.00648719      -0.00642724
Si      11.07129524      12.11158201      12.14171174       0.01090103      -0.00632170      -0.00196996
Si      -0.00848608       6.15504345      12.17601850       0.00422280       0.00842863      -0.02797833
Si      -0.00415892      15.15830574      12.13449307       0.00814643       0.01076056      -0.01393482
Si       5.39272693       6.09445304      12.23688945       0.03402700       0.00668474       0.02344361
Si       5.38745866      15.26321930      12.12705159      -0.01222482      -0.00592571       0.00109802
Si      10.92768708       6.03826322      12.21724972      -0.02703692       0.01614611       0.04032299
Si      10.82581294      15.14035543      12.15123667      -0.00916552       0.01027841      -0.01614857
Si       2.66548666       1.64285821      12.16126625      -0.01860703      -0.01435236      -0.02098428
Si       2.72635086      10.64243725      12.12442267       0.00789042       0.01105512      -0.00931449
Si       8.11622522       1.61440751      12.17789913       0.02286885      -0.00386845      -0.02297829
Si      13.55355081       1.57336524      12.15955056       0.01355749      -0.00163850       0.00157469
Si      13.67916926      10.65888050      12.13343860       0.01362571      -0.00737984      -0.02387910
Si       2.71233979       7.58155036      12.17357993       0.00478016       0.02077428       0.02897125
Si       2.66649517      16.66836350      12.12925787       0.01190806      -0.00416671       0.01245032
Si       8.19338392       7.44174095      12.33934330      -0.00148079      -0.04225987      -0.02567855
Si       8.13932394      16.63129935      12.14567220      -0.03174630       0.00519654       0.03438381
Si      13.54640868       7.60702497      12.17883729      -0.00461798       0.00621733      -0.00638610
Si      13.54736416      16.59568365      12.14772818       0.00124914      -0.00315341      -0.00436983
H        6.68439858      10.86213786      13.27793931      -0.02083213      -0.01952314       0.01312681
H        7.47502620      11.10941116      11.32779011      -0.00321105       0.05268393      -0.03774840
H        9.05877617       9.58954014      13.06690126       0.00653033      -0.05221635       0.02937368
H        9.32204579      10.92817737      11.74476898       0.00410962      -0.03115630      -0.00484017
148
Lattice="16.2580184937 0.0 0.0 0.0 18.0759601593 0.0 0.0 0.0 30.0" Properties=species:S:1:pos:R:3:forces:R:3 energy=-1479.5836181640625 pbc="T T T"
Pt       7.79067093       9.55397766      12.51048059       0.19426918       0.18994857       0.20247307
O        2.74787864       9.20964288       8.53347607       0.03737086      -0.03648686       0.01636410
O        2.58409954      18.23251328       8.51878652      -0.00093492      -0.00425554       0.03653773
O        8.07380698       9.09680088       8.69631540      -0.00903054      -0.03958505       0.09310794
O        8.13115731      18.22943098       8.55953745       0.00688592      -0.00900796      -0.01726088
O       13.43999386       9.23917503       8.60198894      -0.00708651       0.00917237      -0.00746161
O       13.54849486      18.18173835       8.56550488       0.03286762       0.05287753       0.00207856
O        1.29695285       2.47291351       8.46514502       0.04473602       0.00927236       0.01394254
O        1.25653215      11.37054910       8.55575122      -0.02650603      -0.02315095       0.01588865
O        6.74119730       2.39059015       8.48546937      -0.04234428      -0.03650982       0.00031184
O        6.64164653      11.37107189       8.66225622       0.04091939       0.01014259       0.02273384
O       12.15435307       2.33985068       8.48993273       0.01344261      -0.00216807       0.07576714
O       12.02303900      11.45639044       8.78829326       0.05694574      -0.03867275       0.01558692
O        4.02224130       2.35653566       8.47503280      -0.06153704       0.01516518      -0.00858316
O        3.96128516      11.54911562       8.52020290      -0.00579139      -0.03440480      -0.03702598
O        9.44252006       2.42834902       8.48980105       0.05143497       0.03242989       0.04071990
O        9.31787566      11.41609037       8.82862361      -0.01591471      -0.00295258       0.02130515
O       14.86196769       2.43283540       8.47599874      -0.02843319      -0.03972621       0.02476370
O       14.77021676      11.48504320       8.59610176      -0.01155869      -0.02241521       0.02344543
O        5.35009563       4.62272168       8.52563866       0.00679716       0.06681184       0.02810272
O        5.42410059      13.75080945       8.53734643      -0.00971108       0.00970046      -0.01145094
O       10.88760477       4.64206339       8.53606567      -0.05463976      -0.00269398       0.02592052
O       10.70296651      13.68369667       8.93297349      -0.02452249      -0.01103215      -0.00989806
O       16.18924651       4.74335476       8.50190425       0.04689254       0.02446030      -0.01651394
O       16.22830435      13.65387225       8.57973412       0.04354255       0.01209309      -0.03059917
O        1.40304501       6.94815117       8.48758843       0.00776839      -0.01469162       0.03975625
O        1.32400566      15.91773725       8.52314582       0.04809921       0.00256863       0.03567392
O        6.80261932       6.82011127       8.47256859       0.03914113      -0.01464554      -0.01028039
O        6.75773960      15.99800788       8.52593433       0.01257697       0.01060376      -0.02902834
O       12.25348498       6.89557839       8.51662040       0.01721906      -0.00070397      -0.03140111
O       12.19515752      15.88724742       8.55887285       0.01448115      -0.02370510      -0.01359527
O        4.10634074       6.94339380       8.49970464       0.00623021      -0.03817915       0.03543752
O        4.03170034      16.00995538       8.53354731      -0.01855608       0.00198782      -0.03693898
O        9.55658310       6.91426214       8.45866398      -0.07095888       0.00865206       0.07001409
O        9.47839978      15.96792656       8.52737852      -0.02174789      -0.00741534       0.01709129
O       14.94822913       7.06051702       8.52599630      -0.04873440       0.02283469      -0.01988685
O       14.89257352      15.91536854       8.55933713      -0.02992008       0.02371031      -0.02004966
O        2.80101252       9.19334669      12.78399630       0.01419038      -0.01896006      -0.00933683
O        2.41021255      18.29119733      12.73816968      -0.01288369       0.04722016       0.01731358
O        8.46101095       9.72583013      14.49565491       0.09856185      -0.06684580      -0.06142469
O        8.09121848      18.25289732      12.75551662      -0.01056277      -0.04551174       0.07580749
O       13.46848800       9.18709643      12.86830186      -0.02226800      -0.03871571      -0.02327882
O       13.76536450      18.28481113      12.75468568       0.01104440      -0.01018691       0.03536204
O        1.30228135       2.54735828      12.74431281      -0.00181000       0.04023509       0.06369120
O        1.36348929      11.40058690      12.82716178       0.02271091       0.01230738       0.01922476
O        6.71918652       2.40811905      12.78624593      -0.01617237       0.02071816      -0.01504752
O        6.75435984      12.10738557      12.77938843      -0.11577820       0.00894177      -0.00924504
O       12.14910545       2.28896383      12.76533254      -0.00861777       0.01335840       0.03440475
O       12.31404238      11.56542311      12.96408948       0.07465142      -0.01314452       0.09515046
O        4.01000207       2.29477842      12.75666363       0.00643381       0.01195361      -0.03168516
O        4.03108860      11.50597308      12.84726250       0.08306267      -0.01243614      -0.00533281
O        9.44107120       2.43095876      12.78776883      -0.00501071      -0.01938323       0.03022049
O        9.75758114      11.86229642      13.57328344       0.04366070      -0.08732191       0.06071250
O       14.84373822       2.58476330      12.75989910       0.00809373      -0.06456991       0.03601652
O       14.96434772      11.35592565      12.90134652      -0.03545411       0.03662647      -0.00867932
O       -0.02364927       4.78174046      12.75103166       0.05292026      -0.00893727      -0.02180760
O       -0.00675932      13.65030397      12.82017214      -0.00369912       0.04968187      -0.02086472
O        5.24362592       4.58764232      12.73749352       0.03086247       0.04372133      -0.00028849
O        4.99122572      13.94551475      12.80868497      -0.00338116      -0.01564273      -0.03688199
O       10.93065521       4.60483692      12.73922878      -0.03647649       0.10661804       0.06735183
O       11.06615211      13.91321344      12.75914593       0.01039909      -0.00221971       0.05845227
O        1.41723496       6.97448494      12.78762984       0.00894512      -0.00765217      -0.02391636
O        1.36912110      15.89388621      12.81931785      -0.00508352      -0.02346998       0.00889312
O        6.86069852       6.62792937      12.82133034       0.02516048       0.00618125       0.00880198
O        6.76002069      15.97054747      12.80598410      -0.00224905      -0.00989027       0.01917148
O       12.26099515       6.86421589      12.80871564      -0.03947007      -0.00360772       0.01169293
O       12.19968351      16.21469911      12.89939010      -0.00656554       0.03260130      -0.06215797
O        4.13413626       6.94569896      12.78386989       0.07301416      -0.02345895       0.02158453
O        4.07755853      16.31744555      12.78486813       0.00370908      -0.00223228      -0.03919079
O        9.55542897       6.84080225      12.83150083      -0.03817547       0.01956524      -0.04204275
O        9.46762945      16.02518410      12.88259945      -0.02330203      -0.02834997       0.01613504
O       14.97058293       7.04978725      12.79273633      -0.00316918       0.03497291      -0.01728776
O       14.90839203      15.91577835      12.83272773       0.01322955       0.02709436      -0.03967592
O        5.36268163       3.00942518      10.62426189       0.00536462       0.00518828       0.02067584
O        5.20223918      12.33362232      10.68601069       0.01686220      -0.01682027       0.04368726
O       10.80758816       3.02721427      10.63622132       0.02614097       0.00182914      -0.05445410
O       10.63491755      11.99887830      11.00243834      -0.04659057       0.03787695      -0.02386671
O       -0.06179955       3.21175921      10.60781055       0.01149529      -0.03999816       0.02041750
O       -0.04356447      12.07333110      10.70698047      -0.01444870       0.02759309       0.02389342
O        0.04936998       6.33662800      10.63289485       0.00819470      -0.02674659       0.03096026
O        0.00578342      15.20953085      10.69211775      -0.02276128       0.02279635       0.00416803
O        5.42595857       6.18525964      10.64291113      -0.01201065       0.02663395       0.00267027
O        5.39481600      15.38301283      10.66004464      -0.03175820      -0.02787736       0.01012362
O       10.93728888       6.20465240      10.64753975      -0.08507048       0.03611936       0.01693639
O       10.83674095      15.59113948      10.73470891       0.02958701       0.01357708       0.01757178
O        2.59765852       1.77639651      10.60775181       0.07203728      -0.05611350       0.00888789
O        2.70867728      10.76164848      10.67183701       0.00600215      -0.00204281       0.01012338
O        8.09074120       1.74877227      10.64676511       0.00610003       0.04077099      -0.02094568
O        7.82338945      10.60448572      10.86709511      -0.01840029       0.06137550      -0.11321929
O       13.56603998       1.74044193      10.63121409      -0.04693742       0.01710787      -0.04547641
O       13.52569508      10.76565458      10.78100271       0.02799738       0.00706514      -0.02063065
O        2.76902797       7.62850433      10.64408543      -0.02912391       0.02583069      -0.00402928
O        2.62441613      16.68605562      10.65419892      -0.01525465      -0.00921289      -0.06273000
O        8.20123250       7.14840730      10.62173500       0.03661453      -0.04130581      -0.07959570
O        8.13679732      16.63980104      10.67539201      -0.00207183      -0.00884286       0.01383197
O       13.55718298       7.65923226      10.68042504       0.01093023       0.01024146       0.01974905
O       13.56521182      16.62649372      10.69569604      -0.01120095       0.00808162      -0.00447483
Si       5.37202085       3.08538248       9.01416318      -0.06746210       0.00202591      -0.00003124
Si       5.32710153      12.22756780       9.08095796      -0.02517318       0.02186801       0.03939117
Si      10.82082111       3.10496659       9.02593367       0.06114533      -0.05061011      -0.04994574
Si      10.66351814      12.12921354       9.37569612       0.05949767      -0.01595476      -0.04552804
Si      16.20001226       3.20169556       8.99573104      -0.00456836      -0.01906496      -0.01775931
Si      16.18174739      12.12662800       9.09487092      -0.03231025       0.01516985       0.01227579
Si       5.42731246       6.15629896       9.02998428      -0.01439677       0.03564671      -0.06335113
Si       5.39479646      15.28552020       9.05041646      -0.01248158       0.05866104      -0.01211534
Si      10.88928929       6.18025219       9.03493549       0.06215581      -0.02916140      -0.02008149
Si      10.80824924      15.27823123       9.15667826      -0.00252373       0.01611789       0.01785763
Si      16.28133685       6.27383392       9.02113536      -0.04576278       0.03771604       0.02555597
Si      16.24420058      15.18611064       9.07912784       0.00673528       0.04638613       0.00234705
Si       2.62848490       1.70278309       8.99727056      -0.02938680      -0.06582166       0.02815152
Si       2.66576659      10.73388202       9.05990061      -0.03297475      -0.01195874      -0.01783729
Si       8.10047121       1.69449422       9.03633844       0.04345855      -0.01249332      -0.04121359
Si       7.96170584      10.61304361       9.26879484       0.02262670       0.05828312       0.02926874
Si      13.53412670       1.66178076       9.02181625      -0.01822636      -0.00234665      -0.01577152
Si      13.43642107      10.74958456       9.17187461       0.04180581      -0.02092535       0.00454690
Si       2.75619208       7.67198925       9.03112067      -0.02534037      -0.01746792      -0.01439363
Si       2.64874164      16.70256253       9.04312900       0.02052974       0.01566812      -0.05514443
Si       8.15800249       7.51838947       9.04998630      -0.02883408      -0.00472577      -0.03239892
Si       8.12211366      16.69696557       9.06010750      -0.00147799      -0.00883840       0.02320225
Si      13.55262838       7.69394688       9.06682060       0.01941907       0.06875586       0.02562914
Si      13.54297723      16.64694384       9.08075208      -0.02056837       0.06308433       0.00061579
Si      -0.04742533       3.26615629      12.21849014      -0.02843086      -0.02661985       0.03702974
Si       0.00926151      12.11719478      12.31689176      -0.01497847       0.06304911       0.03097059
Si       5.33898042       3.06580410      12.23515200      -0.01950045      -0.05473190       0.01399843
Si       5.23636839      12.43659336      12.29356202      -0.01393196       0.05852743      -0.00363736
Si      10.82911173       3.07803657      12.24680973      -0.00107525       0.02929107      -0.04761666
Si      10.96002797      12.32580629      12.54320755       0.07459215      -0.00557490      -0.00410372
Si       0.04315519       6.30543973      12.24508119      -0.02038193      -0.01753583       0.02331291
Si       0.00228858      15.18034567      12.30503712      -0.01764021       0.03897148      -0.00831661
Si       5.42689051       6.11445691      12.25586213      -0.08074868      -0.07604111      -0.08613166
Si       5.32383638      15.42581212      12.26940174       0.01335279      -0.01258126       0.02257624
Si      10.91240618       6.14468383      12.25969156       0.08286391       0.00831588      -0.02091449
Si      10.88732781      15.45444987      12.33042051      -0.00639557      -0.00902037       0.02906293
Si       2.59130737       1.72463634      12.21885408      -0.04629006       0.04959487      -0.01480003