24
Properties=species:S:1:pos:R:3:forces:R:3 energy=-15553.956779293565 pbc="F F F"
N        0.34422744      -0.09324938      -0.43491359       0.98781571      -0.93684591      -1.15518635
N       -0.38703476       0.60889401       0.29870555      -0.11636905      -0.23698495       0.08546568
C       -1.74999967       0.27574236       0.12327245      -0.70120976       0.31151151       0.12432806
C       -2.60140579       0.88391026       1.03906742       1.10657928       0.05770841       2.17943881
C       -3.97610671       0.63652945       1.03982903       0.00039569       3.43104939       0.60575472
C       -4.45752747      -0.00466705      -0.05231045      -2.41933687      -1.62567595      -1.25402727
C       -3.66391065      -0.73099152      -0.97902315      -2.45023664       0.60315158       0.09066656
C       -2.33530682      -0.56416956      -0.87023296       3.45738494      -0.28490774      -0.69653657
C        1.75295829      -0.02566926      -0.29528682      -0.30781221      -0.09603620       1.05138212
C        2.50474839      -1.00914475      -0.97534199       1.00598498      -0.23462478      -0.32235766
C        3.90104929      -1.16791846      -0.68311105      -2.25606061       0.54416709       0.00905517
C        4.50984831      -0.27749213       0.20511803      -2.37124547      -0.45184520      -1.15275789
C        3.78435554       0.69910879       0.86791672      -1.45798275      -0.60985604      -0.61307008
C        2.38814745       0.75547586       0.70000185       0.25401630       0.99652275       0.65600894
H       -2.08274715       1.41607326       1.89224278      -0.52289635      -0.01052065      -0.80861810
H       -4.63289251       1.43144408       1.55753064       0.59579936      -1.56695947      -0.05348913
H       -5.55676018       0.01979800      -0.18785896       0.09043043      -0.20970699      -0.13661814
H       -4.18019809      -1.25016232      -1.81800215       0.44198389      -0.00737079       0.34173709
H       -1.62141451      -1.04073169      -1.57539984      -0.18498598       0.11616871       0.14754584
H        1.98845954      -1.66127169      -1.71604880       0.13397622       0.19177097       0.38651044
H        4.41939150      -2.04536652      -1.03979346       0.49931460      -0.37339375      -0.54848078
H        5.49918793      -0.44808270       0.38076069       3.44737564      -0.21594016       0.80678969
H        4.29035881       1.32108356       1.55993446       0.56275210       0.98838552       1.11786961
H        1.79405364       1.39863405       1.41113674       0.20432639      -0.37976751      -0.86141077
9
Properties=species:S:1:pos:R:3:forces:R:3 energy=-4209.176758677441 pbc="F F F"
C        0.30579364       0.38056024      -0.38694222       1.23557245       0.85557483       0.39027566
C       -1.07976528      -0.04538939      -0.46691819       0.61048288      -3.92996989      -4.21568121
O        0.76299683      -0.23832305       0.76632614       1.36226695      -0.56148269       1.74650937
H        0.94315932      -0.02576996      -1.23859697      -0.49843673       1.21644818       0.04655080
H        0.28186192       1.45988122      -0.10706408       0.77803828       0.37561873      -1.24158847
H       -1.45566127      -0.03234148      -1.50797673      -0.55278856       0.42252943       0.03649773
H       -0.93007749      -1.18427494      -0.31279402      -0.94174921       0.87918871      -0.08128306
H       -1.71629724       0.34865304       0.22488491      -2.23451096       1.44089370       2.35277338
H       -0.01258911      -0.77858401       0.95204639       0.24112489      -0.69880094       0.96594581
9
Properties=species:S:1:pos:R:3:forces:R:3 energy=-7254.802240523821 pbc="F F F"
C       -0.73109196      -0.92375778       0.97677821       0.25946061       2.82498120      -1.28862367
C       -0.99044210      -0.20122761      -0.42574054       2.90260897      -0.04847152       0.00006340
C        0.54545512       0.18963039      -1.01243656      -0.21410856       3.76887974       0.10028475
O        0.83749972       1.40076949      -1.18478686      -0.99921346      -3.15129183       0.42701595
O        0.24027983      -0.56694369       1.61991160      -0.25862202      -0.87100134       0.02622618
H       -1.55700070      -1.52116504       1.38918932      -0.40602722      -0.85451646       0.26948956
H       -1.41729165      -0.85207469      -1.20870214      -0.55778900      -0.09334045       0.07913799
H       -1.53624384       0.80986323      -0.31295453       0.60092486      -1.26595981      -0.08123323
H        1.41522681      -0.52571616      -1.27637871      -1.32723418      -0.30927954       0.46763897
21
Properties=species:S:1:pos:R:3:forces:R:3 energy=-17617.57831912166 pbc="F F F"
C        1.69168585      -1.46045742      -0.61593040      -1.52019403       2.18451473      -1.42351366
C        0.78395789       0.92728580      -1.98049946      -2.30916520       0.72937424       0.97119888
C        2.51821874      -0.61028363      -1.40942743       0.55275791      -1.39120981      -0.55323979
C        2.06316994       0.56232946      -2.10644772       1.26125397      -2.70830408       1.26692376
C       -2.35446402       2.05834539       1.30915195       4.24080125       1.46350383       0.91792953
C        0.32796499      -0.92994252      -0.39422750       1.98078407      -0.06640455       0.21302690
C       -0.01116733       0.31973794      -0.96063341      -0.44414675      -0.10369459      -0.46179280
O       -1.71593195      -1.05576061       0.91981295       3.01472959      -1.63892228      -0.31088463
O       -0.01626335       1.32722049       1.51509657       3.71838101      -0.25302370       2.34076283
O        0.15666969      -2.21988295       1.55917467       1.37385512      -0.07853347      -1.76494413
C       -0.52043600      -1.43811584       0.69521727      -3.13172013       1.35075098       0.89456401
C       -0.95414306       1.52298168       0.87218740      -5.28926512       0.03424858      -2.98917925
O       -1.10922993       1.01251212      -0.50391469       0.54652000       0.83853618       0.48317702
H       -0.35286530      -2.28584982       2.34463747      -1.46477946      -0.31491416       1.73810731
H        1.91248826      -2.48830666      -0.28148339       0.37220631       0.35461441       0.09634258
H        0.37502414       1.72798591      -2.59180263      -0.32326372       0.58294014       0.11449847
H        3.52118867      -0.95288544      -1.77802818      -0.35045740       0.00461420       0.74908951
H        2.74584902       1.06696770      -2.73988334       0.91939999       0.68151608      -1.03614787
H       -2.21181494       2.43559820       2.34141818      -0.13242477       0.18664717      -0.13817077
H       -2.70297928       2.81462616       0.64902711      -0.75998903       0.88343957      -0.96556785
H       -2.90793765       1.20020833       1.35733373      -2.25528373      -2.73969344      -0.14218005
18
Properties=species:S:1:pos:R:3:forces:R:3 energy=-10477.70743291967 pbc="F F F"
C       -1.10582316      -1.50247687       0.04655171       1.61407375      -0.20016573      -0.59598561
C       -2.24045639      -0.85428597      -0.19397243      -4.79592061      -0.20102905       0.67462635
C       -2.42628664       0.55192480      -0.04837764      -1.44591399      -1.69393247      -1.47075084
C       -1.32545259       1.28845123       0.02169434       3.79484963       2.82349299       1.63953939
C       -0.05285598       0.63605484       0.14427615       0.40922022       4.12823984       1.50267690
C        1.15694343       1.50350003       0.28389665      -3.56062419      -0.66850466      -0.19471478
C        2.28552467       0.91193492      -0.02397087       3.52091911      -1.94663411      -1.99464818
C        2.31514289      -0.49743872      -0.30465343       3.08253184       0.83012883       0.48860848
C        1.30916974      -1.31144812      -0.01620548      -1.41442867      -0.72808323       0.59231361
C        0.04808912      -0.73664839       0.18862624       0.51166227      -0.21334484      -0.41967350
H       -0.88079122      -2.47300269      -0.33283708      -0.45714959      -1.72624907       0.25342232
H       -3.18803833      -1.46741478      -0.31122229       0.73348867       0.48268245      -0.34072804
H       -3.37197682       0.96346276      -0.35875305      -0.95502191       0.40396149       0.32601876
H       -1.15714224       2.41599729       0.17769180      -1.14406005      -1.15178581      -0.60441770
H        1.20876088       2.56731680       0.44728893      -0.82178734       0.86569011       0.14395385
H        3.20557055       1.46574363      -0.29696042      -0.05422549       0.05732043       0.59166312
H        3.27324408      -0.96652625      -0.52847218       0.52092097       0.04510630      -0.28498637
H        1.33951087      -2.38126513       0.03769366       0.46146539      -1.10689347      -0.30691782
15
Properties=species:S:1:pos:R:3:forces:R:3 energy=-7373.017479603752 pbc="F F F"
C        2.37745258      -0.20606126      -0.03040659      -0.71066000      -0.75302144       2.63465873
C        0.92221603      -0.10819435       0.04865961       2.09166747       1.15657284      -0.30022540
C        0.13755995      -0.88465135       0.81263417      -0.69627972      -2.17298966       2.06354952
C       -1.23890743      -0.72370501       0.75520489       0.73716139      -2.59971307       1.24614216
C       -1.80446843       0.05889854      -0.16056481      -3.45485338       1.52872516      -0.89614889
C       -1.04887227       0.94621281      -0.81159041       2.69185735       2.64644740      -1.01682902
C        0.36655153       0.94243589      -0.57408007      -2.83192991       2.16642599      -4.18713034
H        2.70923706      -0.82328056      -0.78044009       0.85558552      -2.17045851      -2.58304662
H        2.82685163       0.72174700      -0.21377155       1.07087551       1.99836877       0.06656715
H        2.67368412      -0.69432944       0.89852296       0.91964399       0.06601893       0.55012670
H        0.69061640      -1.61022942       1.43810526      -0.63097689      -0.20978654       0.18339637
H       -1.97233973      -1.32802798       1.21692498      -0.50577548      -1.36629957       1.55199868
H       -2.89977209       0.16576453      -0.30452204       0.14563721      -0.50750742       0.23851645
H       -1.53745381       1.71385409      -1.42621967       0.23643186       0.11238487      -0.27940198
H        0.94664736       1.55856280      -1.30282828       0.08161509       0.10483236       0.72782648
9
Properties=species:S:1:pos:R:3:forces:R:3 energy=-4209.43993274323 pbc="F F F"
C       -0.12391654       0.24248832      -0.53370511       1.94807079      -0.58573504       0.35001928
C       -1.23675744      -0.08723224       0.55098222      -0.18662213       1.53127122       0.60890875
O        1.22606267      -0.18294607      -0.07397582      -0.27649921       0.62932593       0.55858948
H       -0.16238760      -0.29204978      -1.54135473      -0.70019571      -0.29867944       1.12714960
H        0.01395808       1.27701694      -0.97584823      -0.87517167       0.03650987       1.09018213
H       -1.13453579       0.40057608       1.57855725       1.10099917       0.00488556      -0.79099165
H       -2.24132650       0.38641248       0.39500765       0.11440427      -0.53358556      -0.92393923
H       -1.37281935      -1.13865918       0.88505615       0.21773490      -0.13344473      -0.85594800
H        1.64828965       0.41912825       0.62695153      -1.34272035      -0.65054776      -1.16397037
12
Properties=species:S:1:pos:R:3:forces:R:3 energy=-11266.114386780606 pbc="F F F"
C        1.56302129       0.22804399      -0.12168782       3.22587649       0.78256841       0.06782390
C        1.30554533      -1.11288315       0.06923206       6.28439562       1.90459195      -0.51705527
N        0.10690822      -1.46581826       0.20457333      -4.64759861      -1.62916576       0.97369048
C       -1.01616706      -0.70567994       0.12960019      -2.03265294       0.37172572      -1.13127494
N       -0.72679162       0.63841107       0.09135493       3.21618631      -3.37754098       0.69167770
C        0.53369222       1.22863411      -0.08938916       0.03213771      -2.43832431       0.10272992
O       -2.10281311      -1.26812862      -0.03164387       0.07925693       0.82172425       0.57675206
O        0.66209128       2.41211838      -0.22910820       0.11316047       2.25938428      -0.17469880
H        1.99684570      -2.00472204       0.14930281       0.16569572       1.22477871      -0.26434992
H       -0.14222732      -2.40842908       0.23683550      -0.54389028      -2.39839256       0.12263118
H       -1.36989294       1.29079216      -0.00427416      -5.06551955       3.85488936      -0.50038398
H        2.56651698       0.77384933      -0.21117395      -0.82704792      -1.37623900       0.05245760
20
Properties=species:S:1:pos:R:3:forces:R:3 energy=-13998.894814271103 pbc="F F F"
C        0.80736911      -0.24433036      -0.62441062       0.39628747       0.85801671       1.17065590
C        2.17536817       0.08297664      -0.01168875       1.62345689      -0.11278123      -1.31964547
O        2.54478062       1.21439331       0.28529809      -0.43072467      -0.11330779       0.29214375
N        3.11754622      -0.98016086      -0.13881753      -0.07937977       0.78876044       0.14008727
C        4.53989001      -0.98194950      -0.15943078       0.58704038       2.87662875       0.69340312
C        5.19871478      -2.11038566      -0.67447818      -0.86856096      -0.42329644       0.64676217
C        6.55111636      -2.40351349      -0.54894462       1.56385964       2.14692561      -0.97587592
C        7.42724844      -1.31598186      -0.12004537      -0.81155343       2.90005983       1.49756940
O        8.79235539      -1.39323890      -0.06978046       0.31450680      -1.43049488      -0.43255627
C        6.84055938      -0.00180492       0.34248015      -3.04250861      -2.41758734      -0.56029891
C        5.33046574       0.18448139       0.26316055       2.81624521      -2.01767482       0.21326493
H        0.86366225      -1.11137849      -1.25598142      -0.24186583      -1.00571316      -0.43851254
H        0.48105865       0.61277065      -1.22132834       0.20361167       0.41161952      -0.34364259
H        0.03784893      -0.28735040       0.15435719      -0.33934530      -0.47922493       0.32605907
H        2.75522740      -1.91665121      -0.11780197      -0.56175358      -0.71089921      -0.31870494
H        4.55835138      -2.86961012      -1.14583559      -0.06928974      -0.19675202      -0.01228843
H        6.87034064      -3.23363363      -1.20556430       0.58202231      -0.09861343       0.66105180
H        9.33840460      -0.65336933       0.29666473      -1.35802993      -0.16493436      -0.19660866
H        7.45712566       0.69085797       0.98505168      -0.33717950      -0.25452399      -0.92106196
H        4.86625724       1.13307852       0.61145433       0.05316090      -0.55620720      -0.12180190
12
Properties=species:S:1:pos:R:3:forces:R:3 energy=-6306.418468578695 pbc="F F F"
C     -149.55800000     168.39800000    -140.87900000      -1.79435014      -0.55539540       0.30863944
C     -150.43600000     169.47900000    -141.24900000      -0.97612115      -0.76372345       0.53268104
C     -151.80300000     169.39100000    -140.85100000       0.18900457      -1.09597328       0.75341750
C     -152.28500000     168.26800000    -140.09200000      -1.17772680       0.35909116      -0.27820117
C     -151.49900000     167.14800000    -139.79400000       1.73856440       0.01474533      -1.40847384
C     -150.13100000     167.19500000    -140.25300000      -0.83210955       3.01327681      -0.16606904
H     -148.47600000     168.49100000    -141.07500000      -0.10275984      -0.30378478      -0.11528317
H     -150.22700000     170.38600000    -141.87100000       0.68032921      -0.59793800       0.43915814
H     -152.52900000     170.18500000    -141.10300000       0.19556618      -0.03557070      -0.02651769
H     -153.37500000     168.19500000    -139.79200000       0.81307989       0.41053837      -0.29557859
H     -151.90700000     166.18200000    -139.39300000       0.18285495       0.79857774       0.02138170
H     -149.49300000     166.38100000    -140.03000000       1.08366824      -1.24384385       0.23484564
